 Gaussian 16, Revision B.01,
 Gaussian 16:  ES64L-G16RevB.01 20-Dec-2017

 ----------------------------------------------------------------
 #p freq td=(nstates=10,root=2) cam-b3lyp/6-311+G(d,p) symm=loose
 ----------------------------------------------------------------

 ----------------------------
 Uracil TDDFT excited state 2
 ----------------------------
 Symbolic Z-matrix:
 Charge =  0 Multiplicity = 1

                         Standard orientation:
 ---------------------------------------------------------------------
 Center     Atomic      Atomic             Coordinates (Angstroms)
 Number     Number       Type             X           Y           Z
 ---------------------------------------------------------------------
      1          6           0       -1.228126    0.361792   -0.000000
      2          6           0        0.055301   -1.699731    0.000000
      3          6           0        1.234421   -1.064892    0.000000
      4          6           0        1.270349    0.391010    0.000000
      5          7           0       -0.000000    0.986691    0.000000
      6          1           0       -0.026226   -2.778731   -0.000000
      7          1           0        2.172556   -1.596879    0.000000
      8          8           0        2.266360    1.076564    0.000000
      9          8           0       -2.283652    0.947576   -0.000000
     10          7           0       -1.136964   -1.020466   -0.000000
     11          1           0       -2.019061   -1.508516   -0.000000
     12          1           0       -0.021863    1.998362   -0.000000
 ---------------------------------------------------------------------

 SCF Done:  E(RCAM-B3LYP) =  -414.770071949     A.U. after   14 cycles

 Excitation energies and oscillator strengths:

 Excited State   1:      Singlet-A"     5.0994 eV  243.13 nm  f=0.0000  <S**2>=0.000
      26 -> 30        -0.16651
      28 -> 30         0.63343
      28 -> 33         0.21125

 Excited State   2:      Singlet-A'     5.5012 eV  225.38 nm  f=0.1903  <S**2>=0.000
      27 -> 33         0.10965
      29 -> 30         0.68613
 This state for optimization and/or second-order correction.
 Total Energy, E(TD-HF/TD-DFT) =  -414.567907600
 Copying the excited state density for this state as the 1-particle RhoCI density.

 Excited State   3:      Singlet-A"     6.1780 eV  200.69 nm  f=0.0032  <S**2>=0.000
      29 -> 31         0.69087

 Excited State   4:      Singlet-A"     6.3777 eV  194.40 nm  f=0.0000  <S**2>=0.000
      26 -> 30        -0.30292
      26 -> 33         0.39873
      26 -> 40        -0.11053
      28 -> 30        -0.17789
      28 -> 33         0.42544

 Excited State   5:      Singlet-A'     6.6155 eV  187.42 nm  f=0.0452  <S**2>=0.000
      27 -> 30         0.69221

 Excited State   6:      Singlet-A'     6.8814 eV  180.17 nm  f=0.1681  <S**2>=0.000
      29 -> 33         0.68852

 Excited State   7:      Singlet-A"     7.1650 eV  173.04 nm  f=0.0007  <S**2>=0.000
      26 -> 30         0.27033
      28 -> 33         0.14680
      29 -> 32         0.54720
      29 -> 34         0.21514
      29 -> 36        -0.11739
      29 -> 38        -0.10921

 Excited State   8:      Singlet-A"     7.1734 eV  172.84 nm  f=0.0002  <S**2>=0.000
      26 -> 30         0.51931
      28 -> 33         0.28437
      29 -> 32        -0.32570

 Excited State   9:      Singlet-A"     7.2370 eV  171.32 nm  f=0.0190  <S**2>=0.000
      26 -> 30        -0.13389
      27 -> 31        -0.11308
      29 -> 32        -0.15687
      29 -> 34         0.63731

 Excited State  10:      Singlet-A'     7.3517 eV  168.65 nm  f=0.0150  <S**2>=0.000
      26 -> 31         0.12618
      26 -> 34        -0.10709
      28 -> 31         0.51411
      28 -> 32        -0.40145
      28 -> 34         0.10029

 The electronic state is 1-A'.
 Alpha  occ. eigenvalues --  -19.19043 -19.18498 -14.46871 -14.45137 -10.41485
 Alpha  occ. eigenvalues --  -10.38058 -10.34157 -10.27386  -1.18339  -1.14825
 Alpha  occ. eigenvalues --   -1.08180  -1.02634  -0.89851  -0.78502  -0.75623
 Alpha  occ. eigenvalues --   -0.68760  -0.65063  -0.60693  -0.57377  -0.55833
 Alpha  occ. eigenvalues --   -0.53737  -0.50808  -0.50252  -0.49392  -0.45272
 Alpha  occ. eigenvalues --   -0.38102  -0.36552  -0.34867  -0.32450
 Alpha virt. eigenvalues --   -0.01305   0.00608   0.03659   0.04035   0.04196
 Alpha virt. eigenvalues --    0.05992   0.06585   0.07896   0.08357   0.09748
 Alpha virt. eigenvalues --    0.11110   0.11224   0.11836   0.14079   0.14519

 Mulliken charges:
               1
     1  C    0.406694
     2  C   -0.041604
     3  C    0.003469
     4  C    0.169654
     5  N   -0.438679
     6  H    0.160236
     7  H    0.162723
     8  O   -0.339754
     9  O   -0.368000
    10  N   -0.386992
    11  H    0.330830
    12  H    0.341423
 Sum of Mulliken charges =  -0.00000

 Dipole moment (field-independent basis, Debye):
    X=             -1.1346    Y=             -4.4796    Z=             -0.0000  Tot=              4.6210
 Quadrupole moment (field-independent basis, Debye-Ang):
   XX=            -59.1942   YY=            -38.5447   ZZ=            -46.7590
   XY=              1.6679   XZ=             -0.0000   YZ=              0.0000

  Exact polarizability: 124.024  -0.429  89.459  -0.000   0.000  43.733
 Approx polarizability: 107.280   7.931  79.489   0.000  -0.000  45.255

 ******    2 imaginary frequencies (negative Signs) ******

                      1                      2                      3
                     A"                     A"                     A"
 Frequencies --   -446.6118              -148.0798               128.2303
 Red. masses --      4.1101                11.9096                 5.5177
 Frc consts  --      0.4830                 0.1539                 0.0535
 IR Inten    --      7.6681                 0.0923                 0.4272

                      4                      5                      6
                     A"                     A'                     A"
 Frequencies --    271.7581               349.4530               356.2381
 Red. masses --      1.8842                10.9441                 1.1492
 Frc consts  --      0.0820                 0.7874                 0.0859
 IR Inten    --     45.9358                17.9302                 0.0341

                      7                      8                      9
                     A"                     A'                     A'
 Frequencies --    444.2647               483.0682               496.6361
 Red. masses --      1.6516                 8.0812                 6.7581
 Frc consts  --      0.1921                 1.1111                 0.9821
 IR Inten    --     48.2344                60.1820                14.4352

                     10                     11                     12
                     A"                     A'                     A"
 Frequencies --    529.4540               538.2843               645.7959
 Red. masses --      1.1190                 6.3628                 4.4218
 Frc consts  --      0.1848                 1.0862                 1.0865
 IR Inten    --    117.9431                15.0250                48.6055

                     13                     14                     15
                     A"                     A'                     A'
 Frequencies --    718.0939               764.7307               949.4115
 Red. masses --      1.8789                 8.4455                 2.8778
 Frc consts  --      0.5708                 2.9100                 1.5283
 IR Inten    --      0.2078                 3.5659                14.2646

                     16                     17                     18
                     A'                     A'                     A'
 Frequencies --    990.0921              1070.5884              1144.0514
 Red. masses --      5.5377                 2.0016                 1.8544
 Frc consts  --      3.1984                 1.3517                 1.4301
 IR Inten    --      8.7617                81.0083                 7.9873

                     19                     20                     21
                     A'                     A'                     A'
 Frequencies --   1275.4994              1365.2973              1420.2500
 Red. masses --      1.7523                 3.0495                 1.7424
 Frc consts  --      1.6796                 3.3492                 2.0707
 IR Inten    --     16.6392                45.0009                35.9619

                     22                     23                     24
                     A'                     A'                     A'
 Frequencies --   1436.7659              1475.1547              1647.7763
 Red. masses --      1.5825                 2.5336                 6.3217
 Frc consts  --      1.9248                 3.2484                10.1130
 IR Inten    --      4.1733               115.7090               231.5226

                     25                     26                     27
                     A'                     A'                     A'
 Frequencies --   1743.6445              1793.0311              3218.4137
 Red. masses --      6.9952                 9.6674                 1.0917
 Frc consts  --     12.5304                18.3119                 6.6628
 IR Inten    --    212.1443               116.3685                 0.4974

                     28                     29                     30
                     A'                     A'                     A'
 Frequencies --   3270.5365              3619.5535              3668.7531
 Red. masses --      1.0954                 1.0778                 1.0789
 Frc consts  --      6.9035                 8.3193                 8.5556
 IR Inten    --      1.3402               105.0370                77.8923

 - Thermochemistry -
 -------------------
 Temperature   298.150 Kelvin.  Pressure   1.00000 Atm.
 Atom     1 has atomic number  6 and mass  12.00000

 Molecular mass:   112.02728 amu.
 Principal axes and moments of inertia in atomic units:
                           1         2         3
     Eigenvalues --   461.38550 887.266251348.65175
           X            0.99944  -0.03350   0.00000
           Y            0.03350   0.99944   0.00000
           Z           -0.00000   0.00000   1.00000
 This molecule is an asymmetric top.
 Rotational symmetry number  1.
 Warning -- assumption of classical behavior for rotation
           may cause significant error
 Rotational temperatures (Kelvin)      0.18773     0.09762     0.06422
 Rotational constants (GHZ):           3.91157     2.03405     1.33818
    2 imaginary frequencies ignored.
 Zero-point vibrational energy     214220.2 (Joules/Mol)
                                   51.19987 (Kcal/Mol)
 Warning -- explicit consideration of   9 degrees of freedom as
           vibrations may cause significant error
 Vibrational temperatures:    184.49   391.00   502.78   512.55   639.20
          (Kelvin)            695.03   714.55   761.77   774.47   929.16
                             1033.18  1100.28  1365.99  1424.52  1540.34
                             1646.03  1835.16  1964.36  2043.42  2067.19
                             2122.42  2370.78  2508.72  2579.77  4630.58
                             4705.57  5207.73  5278.52

 Zero-point correction=                           0.081592 (Hartree/Particle)
 Thermal correction to Energy=                    0.087921
 Thermal correction to Enthalpy=                  0.088865
 Thermal correction to Gibbs Free Energy=         0.051136
 Sum of electronic and zero-point Energies=           -414.486315
 Sum of electronic and thermal Energies=              -414.479986
 Sum of electronic and thermal Enthalpies=            -414.479042
 Sum of electronic and thermal Free Energies=         -414.516772

                     E (Thermal)             CV                S
                      KCal/Mol        Cal/Mol-Kelvin    Cal/Mol-Kelvin
 Total                   55.171             23.491             79.408
 Electronic               0.000              0.000              0.000
 Translational            0.889              2.981             40.057
 Rotational               0.889              2.981             27.803
 Vibrational             53.394             17.530             11.548
 Vibration     1          0.611              1.925              2.972
 Vibration     2          0.675              1.725              1.585
 Vibration     3          0.727              1.576              1.169
 Vibration     4          0.732              1.562              1.138
 Vibration     5          0.804              1.374              0.813
 Vibration     6          0.839              1.288              0.702
 Vibration     7          0.852              1.257              0.667
 Vibration     8          0.884              1.185              0.588
 Vibration     9          0.893              1.165              0.569

 Normal termination of Gaussian 16 at Tue Nov 22 14:27:39 2022.
